data_53772-ICSD
_database_code_ICSD                53772
_audit_creation_date               04/01/03 00:00:00
_audit_update_record               02/01/13 00:00:00
_chemical_name_systematic          'Aluminum'
_chemical_formula_structural       'Al'
_chemical_formula_sum              'Al1'
_publ_section_title                'Crystal structures of common elements'
loop_
_citation_id
_citation_journal_abbrev
_citation_year
_citation_journal_volume
_citation_page_first
_citation_page_last
_citation_journal_id_ASTM
primary 'Physical Review (1,1893-132,1963/141,1966-188,1...' 1917 10 661 696 PHRVAO
2 'Physikalische Zeitschrift' 1918 19 23 27 PHZTAO
3 'Annalen der Physik (Leipzig), Folge 4' 1922 69 59 80 ANPY4V
_publ_author_name                  'Hull, A.W.'
_cell_length_a                     4.05
_cell_length_b                     4.05
_cell_length_c                     4.05
_cell_angle_alpha                  90.
_cell_angle_beta                   90.
_cell_angle_gamma                  90.
_cell_volume                       66.43
_cell_formula_units_Z              4.0
_symmetry_space_group_name_H-M     'F m -3 m'
_symmetry_Int_Tables_number        225
loop_
_symmetry_equiv_pos_site_id
_symmetry_equiv_pos_as_xyz
1 'z, y, -x'
2 'y, x, -z'
3 'x, z, -y'
4 'z, x, -y'
5 'y, z, -x'
6 'x, y, -z'
7 'z, -y, x'
8 'y, -x, z'
9 'x, -z, y'
10 'z, -x, y'
11 'y, -z, x'
12 'x, -y, z'
13 '-z, y, x'
14 '-y, x, z'
15 '-x, z, y'
16 '-z, x, y'
17 '-y, z, x'
18 '-x, y, z'
19 '-z, -y, -x'
20 '-y, -x, -z'
21 '-x, -z, -y'
22 '-z, -x, -y'
23 '-y, -z, -x'
24 '-x, -y, -z'
25 '-z, -y, x'
26 '-y, -x, z'
27 '-x, -z, y'
28 '-z, -x, y'
29 '-y, -z, x'
30 '-x, -y, z'
31 '-z, y, -x'
32 '-y, x, -z'
33 '-x, z, -y'
34 '-z, x, -y'
35 '-y, z, -x'
36 '-x, y, -z'
37 'z, -y, -x'
38 'y, -x, -z'
39 'x, -z, -y'
40 'z, -x, -y'
41 'y, -z, -x'
42 'x, -y, -z'
43 'z, y, x'
44 'y, x, z'
45 'x, z, y'
46 'z, x, y'
47 'y, z, x'
48 'x, y, z'
49 'z+1/2, y+1/2, -x'
50 'y+1/2, x+1/2, -z'
51 'x+1/2, z+1/2, -y'
52 'z+1/2, x+1/2, -y'
53 'y+1/2, z+1/2, -x'
54 'x+1/2, y+1/2, -z'
55 'z+1/2, -y+1/2, x'
56 'y+1/2, -x+1/2, z'
57 'x+1/2, -z+1/2, y'
58 'z+1/2, -x+1/2, y'
59 'y+1/2, -z+1/2, x'
60 'x+1/2, -y+1/2, z'
61 '-z+1/2, y+1/2, x'
62 '-y+1/2, x+1/2, z'
63 '-x+1/2, z+1/2, y'
64 '-z+1/2, x+1/2, y'
65 '-y+1/2, z+1/2, x'
66 '-x+1/2, y+1/2, z'
67 '-z+1/2, -y+1/2, -x'
68 '-y+1/2, -x+1/2, -z'
69 '-x+1/2, -z+1/2, -y'
70 '-z+1/2, -x+1/2, -y'
71 '-y+1/2, -z+1/2, -x'
72 '-x+1/2, -y+1/2, -z'
73 '-z+1/2, -y+1/2, x'
74 '-y+1/2, -x+1/2, z'
75 '-x+1/2, -z+1/2, y'
76 '-z+1/2, -x+1/2, y'
77 '-y+1/2, -z+1/2, x'
78 '-x+1/2, -y+1/2, z'
79 '-z+1/2, y+1/2, -x'
80 '-y+1/2, x+1/2, -z'
81 '-x+1/2, z+1/2, -y'
82 '-z+1/2, x+1/2, -y'
83 '-y+1/2, z+1/2, -x'
84 '-x+1/2, y+1/2, -z'
85 'z+1/2, -y+1/2, -x'
86 'y+1/2, -x+1/2, -z'
87 'x+1/2, -z+1/2, -y'
88 'z+1/2, -x+1/2, -y'
89 'y+1/2, -z+1/2, -x'
90 'x+1/2, -y+1/2, -z'
91 'z+1/2, y+1/2, x'
92 'y+1/2, x+1/2, z'
93 'x+1/2, z+1/2, y'
94 'z+1/2, x+1/2, y'
95 'y+1/2, z+1/2, x'
96 'x+1/2, y+1/2, z'
97 'z+1/2, y, -x+1/2'
98 'y+1/2, x, -z+1/2'
99 'x+1/2, z, -y+1/2'
100 'z+1/2, x, -y+1/2'
101 'y+1/2, z, -x+1/2'
102 'x+1/2, y, -z+1/2'
103 'z+1/2, -y, x+1/2'
104 'y+1/2, -x, z+1/2'
105 'x+1/2, -z, y+1/2'
106 'z+1/2, -x, y+1/2'
107 'y+1/2, -z, x+1/2'
108 'x+1/2, -y, z+1/2'
109 '-z+1/2, y, x+1/2'
110 '-y+1/2, x, z+1/2'
111 '-x+1/2, z, y+1/2'
112 '-z+1/2, x, y+1/2'
113 '-y+1/2, z, x+1/2'
114 '-x+1/2, y, z+1/2'
115 '-z+1/2, -y, -x+1/2'
116 '-y+1/2, -x, -z+1/2'
117 '-x+1/2, -z, -y+1/2'
118 '-z+1/2, -x, -y+1/2'
119 '-y+1/2, -z, -x+1/2'
120 '-x+1/2, -y, -z+1/2'
121 '-z+1/2, -y, x+1/2'
122 '-y+1/2, -x, z+1/2'
123 '-x+1/2, -z, y+1/2'
124 '-z+1/2, -x, y+1/2'
125 '-y+1/2, -z, x+1/2'
126 '-x+1/2, -y, z+1/2'
127 '-z+1/2, y, -x+1/2'
128 '-y+1/2, x, -z+1/2'
129 '-x+1/2, z, -y+1/2'
130 '-z+1/2, x, -y+1/2'
131 '-y+1/2, z, -x+1/2'
132 '-x+1/2, y, -z+1/2'
133 'z+1/2, -y, -x+1/2'
134 'y+1/2, -x, -z+1/2'
135 'x+1/2, -z, -y+1/2'
136 'z+1/2, -x, -y+1/2'
137 'y+1/2, -z, -x+1/2'
138 'x+1/2, -y, -z+1/2'
139 'z+1/2, y, x+1/2'
140 'y+1/2, x, z+1/2'
141 'x+1/2, z, y+1/2'
142 'z+1/2, x, y+1/2'
143 'y+1/2, z, x+1/2'
144 'x+1/2, y, z+1/2'
145 'z, y+1/2, -x+1/2'
146 'y, x+1/2, -z+1/2'
147 'x, z+1/2, -y+1/2'
148 'z, x+1/2, -y+1/2'
149 'y, z+1/2, -x+1/2'
150 'x, y+1/2, -z+1/2'
151 'z, -y+1/2, x+1/2'
152 'y, -x+1/2, z+1/2'
153 'x, -z+1/2, y+1/2'
154 'z, -x+1/2, y+1/2'
155 'y, -z+1/2, x+1/2'
156 'x, -y+1/2, z+1/2'
157 '-z, y+1/2, x+1/2'
158 '-y, x+1/2, z+1/2'
159 '-x, z+1/2, y+1/2'
160 '-z, x+1/2, y+1/2'
161 '-y, z+1/2, x+1/2'
162 '-x, y+1/2, z+1/2'
163 '-z, -y+1/2, -x+1/2'
164 '-y, -x+1/2, -z+1/2'
165 '-x, -z+1/2, -y+1/2'
166 '-z, -x+1/2, -y+1/2'
167 '-y, -z+1/2, -x+1/2'
168 '-x, -y+1/2, -z+1/2'
169 '-z, -y+1/2, x+1/2'
170 '-y, -x+1/2, z+1/2'
171 '-x, -z+1/2, y+1/2'
172 '-z, -x+1/2, y+1/2'
173 '-y, -z+1/2, x+1/2'
174 '-x, -y+1/2, z+1/2'
175 '-z, y+1/2, -x+1/2'
176 '-y, x+1/2, -z+1/2'
177 '-x, z+1/2, -y+1/2'
178 '-z, x+1/2, -y+1/2'
179 '-y, z+1/2, -x+1/2'
180 '-x, y+1/2, -z+1/2'
181 'z, -y+1/2, -x+1/2'
182 'y, -x+1/2, -z+1/2'
183 'x, -z+1/2, -y+1/2'
184 'z, -x+1/2, -y+1/2'
185 'y, -z+1/2, -x+1/2'
186 'x, -y+1/2, -z+1/2'
187 'z, y+1/2, x+1/2'
188 'y, x+1/2, z+1/2'
189 'x, z+1/2, y+1/2'
190 'z, x+1/2, y+1/2'
191 'y, z+1/2, x+1/2'
192 'x, y+1/2, z+1/2'
loop_
_atom_type_symbol
_atom_type_oxidation_number
Al0+ 0.0
loop_
_atom_site_label
_atom_site_type_symbol
_atom_site_symmetry_multiplicity
_atom_site_Wyckoff_symbol
_atom_site_fract_x
_atom_site_fract_y
_atom_site_fract_z
_atom_site_B_iso_or_equiv
_atom_site_occupancy
Al1 Al0+ 4 a 0 0 0 0. 1.
